/*--------------------------------*- C++ -*----------------------------------*\
| =========                 |                                                 |
| \\      /  F ield         | foam-extend: Open Source CFD                    |
|  \\    /   O peration     | Version:     4.0                                |
|   \\  /    A nd           | Web:         http://www.foam-extend.org         |
|    \\/     M anipulation  |                                                 |
\*---------------------------------------------------------------------------*/
FoamFile
{
    version     2.0;
    format      ascii;
    class       volVectorField;
    location    "0";
    object      U;
}
// * * * * * * * * * * * * * * * * * * * * * * * * * * * * * * * * * * * * * //
dimensions      [0 1 -1 0 0 0 0];

Uinf    0.25;

internalField   uniform ($Uinf 0 0);

boundaryField
{
    inlet
    { 
        type            freestreamVelocity;
        freestreamValue uniform ($Uinf 0 0);
    }
    outlet
    {
        type        zeroGradient;
    }
    wall
    {
        type        fixedValue;
        value       uniform (0 0 0);
    }
    obstacle
    {
        type        fixedValue;
        value       uniform (0 0 0);
    }
    frontAndBack
    {
        type        empty;
    }
}
// * * * * * * * * * * * * * * * * * * * * * * * * * * * * * * * * * * * * * //
